Created by olivia2data.pl from olivia.510000

36000 atoms

2 atom types

0 62.150200 xlo xhi
0 62.170898 ylo yhi
0 10.354800 zlo zhi



Atoms

1099 1 1.79184 1.43405 0.525898 0 0 0
14143 1 0.887697 0.829772 0.537539 0 0 0
9018 1 1.06671 0.793567 1.62521 0 0 0
18419 2 0.267541 1.58764 0.687145 0 0 0
10390 2 0.068684 1.15668 1.65313 0 0 0
4799 2 2.0342 0.821857 1.39625 0 0 0
10498 2 2.82284 1.43225 0.541194 0 0 0
29292 1 2.73787 0.23515 1.02276 0 0 0
4425 1 3.37367 1.15543 1.40973 0 0 0
31142 1 2.36181 1.8088 1.43386 0 0 0
5230 2 3.71218 1.41922 0.346422 0 0 0
8039 1 3.61734 0.00217997 0.269568 0 0 0
34626 2 1.04021 1.99231 0.981371 0 0 0
17291 1 1.00043 2.88308 0.474468 0 0 0
20610 1 0.495016 3.29894 1.31883 0 0 0
9557 2 1.51842 2.73639 1.34298 0 0 0
31000 1 0.174229 2.18339 1.54076 0 0 0
32762 2 1.50684 3.78145 0.540772 0 0 0
5631 2 0.206828 2.34519 0.0558192 0 0 0
7296 2 3.75945 2.07672 1.00623 0 0 0
20592 2 2.29148 2.60209 0.78237 0 0 0
32772 1 3.09901 2.70258 1.47723 0 0 0
2205 2 2.36473 3.50916 0.77593 0 0 0
20601 1 3.41007 3.43719 0.623331 0 0 0
17760 1 3.21357 2.35308 0.188597 0 0 0
11824 2 1.30394 1.08262 3.28696 0 0 0
33288 1 0.791319 0.353985 2.60851 0 0 0
3290 2 0.719771 1.55706 2.76085 0 0 0
34382 2 1.90634 1.393 2.66498 0 0 0
26721 1 1.85359 0.425771 2.32956 0 0 0
28034 2 3.78752 0.502509 2.14932 0 0 0
16669 2 2.79136 0.472946 2.07181 0 0 0
6167 1 3.04311 0.812892 3.32185 0 0 0
17432 1 2.90705 1.42323 2.4116 0 0 0
32611 2 3.83641 1.1853 2.80858 0 0 0
24875 1 1.32876 1.94884 1.95373 0 0 0
19807 1 0.918569 2.94703 2.27399 0 0 0
32316 2 1.02049 2.29491 3.24879 0 0 0
8130 2 1.67373 3.31675 3.09245 0 0 0
30570 2 0.0950837 2.36693 2.54132 0 0 0
11094 2 0.12891 3.33537 2.80954 0 0 0
24532 1 2.04446 3.51058 1.74257 0 0 0
14731 1 2.03182 2.32277 3.086 0 0 0
23842 1 3.64069 2.25409 2.44826 0 0 0
14655 2 2.29389 2.58605 2.12535 0 0 0
6652 1 3.09107 3.19121 2.98541 0 0 0
32732 1 3.49253 3.83799 1.87992 0 0 0
27186 2 0.0256471 1.5036 3.45636 0 0 0
16997 2 0.370974 0.234334 3.49745 0 0 0
13638 2 1.36399 0.376556 4.40178 0 0 0
16348 1 0.678367 1.03975 4.07742 0 0 0
35982 2 1.36577 1.20969 4.8251 0 0 0
29372 1 1.98278 0.369439 3.55337 0 0 0
2516 2 2.06622 1.41849 3.68266 0 0 0
6069 2 2.10767 0.869407 4.45426 0 0 0
35196 2 3.51042 0.990674 4.17627 0 0 0
29998 2 2.82593 0.346955 4.22852 0 0 0
14114 1 2.8402 1.35827 4.8868 0 0 0
7975 1 3.07563 1.8531 3.85366 0 0 0
4084 1 3.75361 0.126958 4.58736 0 0 0
1010 2 0.874987 3.19543 3.48554 0 0 0
11067 1 0.349759 3.43959 4.34476 0 0 0
8231 2 1.35535 3.03475 4.32032 0 0 0
7562 1 1.39581 1.98694 4.15734 0 0 0
13949 1 0.480105 2.38851 4.66542 0 0 0
13984 1 0.0636324 2.55265 3.53701 0 0 0
29558 2 3.43924 2.30458 4.72932 0 0 0
31468 2 2.1092 2.14217 4.8888 0 0 0
9249 1 2.71664 2.93743 5.06923 0 0 0
7626 2 3.36619 2.83419 3.92644 0 0 0
21347 1 3.17215 3.72998 4.37736 0 0 0
15463 2 3.83275 3.34084 5.04483 0 0 0
10953 2 2.22129 2.65699 4.10031 0 0 0
30103 1 2.11388 3.68721 4.07039 0 0 0
12902 2 1.04009 0.909127 6.22131 0 0 0
1331 1 0.559614 1.31402 5.42217 0 0 0
2835 1 1.54763 1.75572 5.74482 0 0 0
4600 2 0.546169 0.392347 6.79814 0 0 0
3952 1 1.07561 0.271995 5.42545 0 0 0
8182 2 0.180953 1.13143 6.35355 0 0 0
17016 1 1.40362 1.59863 6.85537 0 0 0
5972 1 1.58153 0.326462 6.86962 0 0 0
12086 1 2.07453 0.752186 5.4657 0 0 0
28218 2 3.49312 0.587194 6.09388 0 0 0
27603 1 2.68127 1.11557 6.50817 0 0 0
25556 2 3.02855 0.414595 5.30481 0 0 0
17851 2 0.892122 2.30009 6.2955 0 0 0
3715 1 0.352398 2.9166 5.65174 0 0 0
35666 1 0.998025 3.26006 6.64987 0 0 0
23193 2 1.69873 2.85073 6.03279 0 0 0
13998 2 0.0824432 2.00099 5.99444 0 0 0
32331 1 1.77668 3.47141 5.2175 0 0 0
4982 2 1.32243 2.57317 5.18103 0 0 0
31608 1 3.38262 1.99274 5.70337 0 0 0
1542 1 3.38529 3.14011 5.97307 0 0 0
4034 2 2.40874 2.25238 5.94538 0 0 0
32873 1 2.45645 2.97707 6.69057 0 0 0
11080 2 2.36788 1.97778 6.88798 0 0 0
3476 2 0.668987 0.884608 7.57197 0 0 0
20586 1 1.01485 1.41998 8.46291 0 0 0
33786 1 0.328495 1.84424 7.0248 0 0 0
32346 2 0.60366 0.0616812 8.07401 0 0 0
10333 1 1.92661 1.06269 7.88255 0 0 0
2350 1 1.61706 0.0189135 8.13069 0 0 0
31344 2 3.83152 0.442634 7.1902 0 0 0
30448 1 2.90817 0.664434 7.47998 0 0 0
1815 1 3.47701 0.705725 8.41639 0 0 0
19304 2 3.34755 1.50616 7.82587 0 0 0
32944 2 0.0809451 2.53134 8.4003 0 0 0
14378 2 0.343265 2.82972 7.28889 0 0 0
26745 2 0.83962 2.26273 7.89146 0 0 0
28845 2 0.471244 3.60509 7.80738 0 0 0
13652 1 1.65571 2.52327 7.33446 0 0 0
22902 2 0.813503 3.06202 8.46335 0 0 0
1912 1 1.77677 3.19971 8.16517 0 0 0
32238 2 1.28356 3.78682 7.49808 0 0 0
35564 1 3.37476 1.95197 6.90599 0 0 0
4484 1 3.22798 2.88525 7.55934 0 0 0
33426 1 2.47113 2.04993 8.02903 0 0 0
11295 2 2.64868 3.65005 7.915 0 0 0
2291 1 0.815308 1.60129 10.0291 0 0 0
22851 2 0.846853 0.494568 8.90029 0 0 0
12009 2 0.789989 0.617264 9.88329 0 0 0
3210 1 1.57917 1.07421 9.39666 0 0 0
12505 2 0.423301 1.92748 9.12614 0 0 0
3999 2 3.13793 1.6348 8.70181 0 0 0
10307 2 2.43704 0.994472 8.75812 0 0 0
17167 1 2.53775 1.80492 9.52786 0 0 0
5170 1 3.1499 0.933321 10.0273 0 0 0
32203 1 2.87342 0.128436 9.13828 0 0 0
26629 1 2.16074 0.469342 10.3137 0 0 0
5977 1 3.87939 1.27583 9.27899 0 0 0
17721 1 1.82733 2.40523 10.2645 0 0 0
6973 1 1.17609 2.651 9.33596 0 0 0
4780 1 0.46301 3.2414 9.92512 0 0 0
27739 2 1.2891 3.70118 9.53106 0 0 0
805 2 1.78395 2.05871 8.80052 0 0 0
12805 2 3.08791 3.21199 10.0445 0 0 0
31350 1 3.85733 2.3609 8.85852 0 0 0
6183 1 2.13077 3.53746 10.0953 0 0 0
17899 2 1.96896 3.2607 9.14038 0 0 0
22367 1 2.92525 2.98155 9.09042 0 0 0
9201 1 1.09326 5.06455 1.39225 0 0 0
22340 1 0.31405 4.41695 0.891445 0 0 0
13082 1 1.53403 5.48332 0.382488 0 0 0
30744 2 1.76684 4.61071 0.82397 0 0 0
21628 2 1.25895 4.04059 1.37176 0 0 0
105 2 3.83284 4.80611 1.29872 0 0 0
32840 1 2.80935 4.42256 0.963777 0 0 0
30460 2 3.66747 5.71983 1.01801 0 0 0
23025 1 2.64913 5.71131 0.855959 0 0 0
21878 2 3.13598 5.38356 1.67784 0 0 0
28637 2 1.81896 5.84395 1.41172 0 0 0
13179 2 1.18334 6.43252 0.540525 0 0 0
28151 1 1.18756 6.66615 1.56674 0 0 0
19750 1 0.136099 6.07854 0.83057 0 0 0
5144 1 1.8991 7.20073 0.346368 0 0 0
17544 1 0.782324 7.66242 0.631849 0 0 0
4091 1 2.75448 6.55831 0.114219 0 0 0
13987 2 2.87691 7.48767 0.591127 0 0 0
31776 2 2.12119 6.99172 1.31614 0 0 0
17935 1 3.60745 6.72733 0.862619 0 0 0
19671 1 1.06894 4.46423 2.42529 0 0 0
34877 2 0.274139 5.02081 2.81231 0 0 0
24211 1 1.0636 5.67871 2.63701 0 0 0
5670 1 1.78289 5.25802 3.42142 0 0 0
15938 1 2.22456 4.93972 1.76857 0 0 0
1027 1 2.66692 4.52052 2.88094 0 0 0
23999 2 3.02489 5.44822 2.99195 0 0 0
14178 1 3.64228 4.86374 2.37898 0 0 0
17832 2 3.46857 4.0347 3.40972 0 0 0
8253 1 1.363 6.88586 3.08356 0 0 0
16690 2 0.427055 6.10339 3.32994 0 0 0
22074 2 1.98621 6.88313 2.25842 0 0 0
5057 1 2.91373 6.56541 1.78746 0 0 0
35138 1 2.24692 5.86252 2.38204 0 0 0
28465 2 3.43048 6.56814 3.17174 0 0 0
33396 1 3.67043 6.00553 2.37979 0 0 0
17171 1 2.92031 7.32164 2.71545 0 0 0
34215 2 2.35471 6.57706 3.1319 0 0 0
21960 1 0.427834 4.20615 3.46161 0 0 0
29151 1 0.867982 4.95521 4.91372 0 0 0
26075 2 0.760931 5.24885 3.55965 0 0 0
30115 1 1.36605 4.4931 4.07099 0 0 0
34230 2 1.56669 5.69442 4.75456 0 0 0
17580 2 2.05588 4.37045 4.88201 0 0 0
10812 2 2.95457 4.6535 3.82343 0 0 0
23092 1 2.34638 5.19324 4.42223 0 0 0
25018 1 3.0944 4.60007 5.02164 0 0 0
29820 1 3.78108 5.26284 3.70335 0 0 0
31604 2 0.412362 7.01802 3.47794 0 0 0
2807 1 0.707689 5.92036 4.31726 0 0 0
26942 2 1.10392 7.46769 3.92462 0 0 0
7663 2 0.612445 6.91224 4.44426 0 0 0
11431 1 1.70491 6.26829 3.88799 0 0 0
28139 2 2.29835 7.39916 3.50177 0 0 0
29483 1 2.86505 6.03301 3.80924 0 0 0
13655 2 3.3887 7.02594 5.08474 0 0 0
30876 2 3.01658 6.93967 4.23706 0 0 0
25555 1 2.01795 7.22743 4.45811 0 0 0
8715 1 3.7075 6.01519 5.06617 0 0 0
5932 2 0.966165 4.80203 6.42011 0 0 0
2897 1 1.67028 5.01546 5.6628 0 0 0
19250 2 1.43814 4.07745 6.14691 0 0 0
1924 1 1.5265 5.60411 6.74108 0 0 0
30943 1 0.104099 5.34429 6.3829 0 0 0
5413 1 0.749354 3.91575 5.31587 0 0 0
3416 2 0.442919 4.08376 6.77862 0 0 0
22747 2 2.69445 5.19486 5.775 0 0 0
28028 2 3.48359 4.47196 6.41586 0 0 0
31127 2 2.34244 5.02818 6.62458 0 0 0
17226 2 3.20526 5.31634 6.55282 0 0 0
3153 2 3.58721 5.20997 5.71775 0 0 0
16308 1 2.41803 4.20453 5.84156 0 0 0
5115 1 0.54833 5.85185 5.46371 0 0 0
3393 1 1.20001 6.79503 5.31091 0 0 0
17127 2 0.475566 6.27469 6.5036 0 0 0
16875 1 1.10864 7.09298 6.52599 0 0 0
17380 2 0.312111 6.82141 5.76423 0 0 0
25982 2 1.50848 5.98968 5.81418 0 0 0
22096 1 2.8958 7.63207 6.58109 0 0 0
20790 1 2.3781 6.03117 5.33255 0 0 0
438 2 2.11142 6.99238 6.45399 0 0 0
16144 1 2.49971 7.41446 5.60056 0 0 0
16503 1 2.69241 6.1658 6.41166 0 0 0
531 2 3.31939 6.93453 5.99888 0 0 0
1048 1 3.81184 6.07324 6.17567 0 0 0
1441 2 1.36354 4.64744 7.20657 0 0 0
30178 1 1.10891 5.34041 8.48487 0 0 0
7515 2 0.459994 4.83864 7.30352 0 0 0
10319 2 0.883482 4.45106 8.01153 0 0 0
14511 2 1.75251 5.32136 7.70821 0 0 0
5405 2 0.857383 5.70712 7.56591 0 0 0
1483 1 2.85988 5.26864 7.57012 0 0 0
27777 2 2.22745 4.54855 7.97937 0 0 0
30014 2 3.5847 4.53653 7.74641 0 0 0
11302 1 2.15958 4.06845 6.98348 0 0 0
21010 2 3.1919 3.99605 7.14939 0 0 0
32913 2 2.57069 5.30095 8.60864 0 0 0
4694 1 1.11664 6.76162 7.94089 0 0 0
32768 1 0.198058 7.58994 8.17112 0 0 0
28102 2 1.87962 6.06137 8.28978 0 0 0
26573 2 0.0774576 7.53195 7.11444 0 0 0
26570 2 3.63159 5.8684 8.54948 0 0 0
35822 2 3.34789 6.69531 6.94058 0 0 0
9761 1 2.22187 7.40419 7.43691 0 0 0
20044 1 2.60308 6.35324 7.50645 0 0 0
9345 2 3.33815 6.90709 7.83882 0 0 0
6449 2 3.62025 6.00598 7.60759 0 0 0
32223 2 2.30061 7.32245 8.42374 0 0 0
6640 1 1.59677 4.16562 8.67088 0 0 0
20353 2 0.737041 4.89355 9.41105 0 0 0
6358 1 1.82489 5.012 9.29211 0 0 0
26838 1 1.29368 4.47893 10.1932 0 0 0
4203 1 0.510071 3.94234 8.84361 0 0 0
22277 2 0.626559 5.27674 10.3456 0 0 0
26504 1 3.28482 4.03886 8.67473 0 0 0
18719 2 2.43773 4.04632 9.21298 0 0 0
9230 2 3.31397 4.99406 9.06531 0 0 0
21653 2 3.42674 4.3223 9.71235 0 0 0
27909 1 2.5266 4.54574 10.078 0 0 0
2615 1 3.38122 5.78296 9.78302 0 0 0
14611 2 1.07267 7.68384 8.64525 0 0 0
9222 2 1.2919 6.78514 10.0301 0 0 0
34640 1 0.599753 6.25004 8.8324 0 0 0
19208 2 0.819516 5.9929 9.81134 0 0 0
3520 1 0.323217 6.75681 10.3061 0 0 0
135 1 1.85602 6.01984 9.72903 0 0 0
13897 1 1.57408 6.90343 9.00457 0 0 0
13663 2 0.787852 7.32891 9.49139 0 0 0
22815 1 2.8149 6.46455 8.66724 0 0 0
21644 1 1.9703 7.76441 9.74434 0 0 0
30846 1 3.66124 7.30469 8.71792 0 0 0
31941 1 2.93414 7.17578 9.58588 0 0 0
12708 2 3.87032 6.78539 9.5771 0 0 0
31899 2 1.35972 8.5691 0.56008 0 0 0
10391 1 0.40676 8.97716 0.949998 0 0 0
25047 1 1.80139 9.46747 0.810317 0 0 0
23942 2 0.356579 8.04971 1.46986 0 0 0
10547 1 1.57623 7.89195 1.35151 0 0 0
11969 2 2.20653 8.1719 0.512548 0 0 0
4274 1 2.68418 8.0117 1.44316 0 0 0
18802 1 2.78407 9.02483 0.87 0 0 0
11504 1 3.72563 8.40185 0.81473 0 0 0
30038 2 0.907659 9.90012 0.733898 0 0 0
6791 1 1.33383 10.7213 1.26449 0 0 0
25108 2 0.375416 11.3338 1.04108 0 0 0
31933 2 0.179159 9.90738 1.44404 0 0 0
23527 1 0.140214 10.4803 0.444399 0 0 0
599 1 1.85027 10.2868 0.0380371 0 0 0
12558 2 3.32321 9.84316 0.61293 0 0 0
15272 2 3.57544 10.5147 1.27338 0 0 0
32061 1 2.78901 10.7323 0.670109 0 0 0
26621 2 2.23665 10.1336 1.44003 0 0 0
2866 2 3.77074 11.2649 0.728296 0 0 0
25093 1 1.38328 8.98158 1.72906 0 0 0
7538 1 0.686572 8.02461 2.45167 0 0 0
33311 2 0.629449 9.04041 2.48592 0 0 0
28173 1 1.35396 9.39977 3.13497 0 0 0
5349 1 1.54315 8.03065 3.17989 0 0 0
16860 1 0.134048 8.04837 3.44426 0 0 0
4399 1 0.014311 9.18282 3.3312 0 0 0
23326 2 0.00856194 9.70978 2.40137 0 0 0
32835 1 2.35078 8.83468 2.21184 0 0 0
5627 2 3.33741 8.63106 2.21473 0 0 0
27419 2 2.84554 8.50859 3.02874 0 0 0
25033 2 3.318 9.3399 2.87092 0 0 0
25853 2 2.39313 9.3402 3.07631 0 0 0
2991 1 3.04533 9.66196 1.93718 0 0 0
289 2 2.1261 7.77979 2.29065 0 0 0
12994 2 0.51953 10.9365 1.86763 0 0 0
3913 2 1.31456 11.3304 2.08948 0 0 0
11199 1 0.981043 9.98058 2.07821 0 0 0
13068 2 0.342196 10.5413 2.68135 0 0 0
11961 2 0.96144 11.203 3.01356 0 0 0
34575 1 1.84091 10.7369 2.77577 0 0 0
35621 2 0.559442 10.0375 3.4201 0 0 0
22398 2 1.77719 11.6475 3.41561 0 0 0
32500 2 2.03193 9.80334 2.27566 0 0 0
34653 2 2.19427 10.9717 1.84783 0 0 0
9447 1 3.29448 10.8645 2.21757 0 0 0
29683 2 2.73516 10.1579 2.78558 0 0 0
25819 2 3.4574 10.5684 3.18771 0 0 0
228 1 0.468953 8.09266 4.44717 0 0 0
25132 2 0.890703 8.77712 3.81685 0 0 0
4708 2 0.494148 9.50291 4.21973 0 0 0
35134 1 1.57141 8.28982 4.52878 0 0 0
35502 1 1.48373 9.59791 4.30435 0 0 0
13467 1 0.174021 8.99657 5.02146 0 0 0
2244 2 1.21701 9.04114 5.15009 0 0 0
1772 1 3.42098 9.18666 5.07623 0 0 0
17122 2 2.5373 9.57081 4.82571 0 0 0
23802 1 3.18925 8.0343 4.89917 0 0 0
25291 1 2.39051 8.90659 4.00528 0 0 0
6650 2 3.45434 8.85193 4.1124 0 0 0
10104 1 3.16393 7.9257 3.79532 0 0 0
11359 2 2.42624 8.68103 5.00542 0 0 0
4944 2 3.87903 9.70059 4.32503 0 0 0
13537 2 0.786406 10.2662 4.65202 0 0 0
17943 1 1.46771 11.4642 4.36303 0 0 0
8353 2 1.67408 10.5477 4.95462 0 0 0
35429 2 1.0271 10.6901 3.85426 0 0 0
32643 2 0.599766 11.5008 3.81243 0 0 0
25066 2 0.0246043 11.3526 4.65052 0 0 0
29055 2 2.92546 11.1293 3.67701 0 0 0
9688 1 3.83993 11.4814 4.00879 0 0 0
9643 2 2.43922 11.5804 4.65534 0 0 0
26816 1 2.7811 10.5441 5.10158 0 0 0
31073 1 2.05778 10.6114 3.97908 0 0 0
27995 2 3.47174 10.5573 4.3042 0 0 0
26235 1 3.06843 9.80897 3.70495 0 0 0
22361 2 3.34002 11.5608 4.98569 0 0 0
34361 2 1.49264 9.30719 6.44292 0 0 0
18771 1 0.576915 8.41454 5.95828 0 0 0
14165 1 1.7642 8.35002 5.69926 0 0 0
22856 2 0.590591 9.39342 6.28056 0 0 0
16582 2 1.80442 7.87036 6.60118 0 0 0
23239 2 1.02303 7.77161 5.2929 0 0 0
4566 1 2.605 9.07577 5.9455 0 0 0
6900 2 3.61796 8.22203 5.81567 0 0 0
33756 1 3.56063 9.67534 6.05223 0 0 0
30042 1 3.78969 8.88979 6.7729 0 0 0
12231 2 2.45313 9.46029 6.85255 0 0 0
11681 1 1.8096 9.74831 5.5557 0 0 0
10945 2 0.94893 11.4435 6.22666 0 0 0
17618 1 0.472963 10.1821 5.65955 0 0 0
28359 2 1.80258 10.5174 6.2347 0 0 0
9016 1 0.826945 10.6005 6.76336 0 0 0
21073 1 0.84136 11.1895 5.24281 0 0 0
21245 1 1.96433 11.3353 5.62405 0 0 0
18239 2 2.63608 10.0992 6.05614 0 0 0
31633 1 3.42797 10.6056 6.51731 0 0 0
27384 2 2.9607 11.2479 5.8596 0 0 0
5 1 2.27524 11.5679 6.72411 0 0 0
626 2 1.39477 7.92421 7.78292 0 0 0
33747 2 0.332334 8.74174 8.08937 0 0 0
16435 2 1.64568 8.67336 7.06613 0 0 0
3021 1 0.702129 8.37297 7.23279 0 0 0
14901 2 1.28784 8.86837 7.9394 0 0 0
21404 2 0.432023 9.5526 7.14924 0 0 0
16358 1 1.59683 9.70801 7.37934 0 0 0
19305 1 1.8454 8.33398 8.61097 0 0 0
35546 1 2.46442 8.76866 7.64329 0 0 0
28852 2 3.19008 9.63172 7.9905 0 0 0
13477 2 2.2854 9.68969 8.12298 0 0 0
2079 2 3.09224 7.77491 8.0041 0 0 0
10604 2 0.314197 9.74442 8.06735 0 0 0
7262 2 0.409351 10.606 7.70141 0 0 0
7204 2 1.17183 10.338 8.10588 0 0 0
17722 2 1.4925 11.1778 7.29395 0 0 0
24271 1 0.709657 11.2053 8.50894 0 0 0
487 1 1.84563 11.1073 8.25513 0 0 0
30194 1 2.45379 10.4623 7.00342 0 0 0
4383 2 3.30143 9.76339 7.10033 0 0 0
13990 1 2.83531 10.5651 8.10954 0 0 0
22155 1 3.56 11.3627 7.29396 0 0 0
15957 1 0.704845 8.58672 9.00275 0 0 0
17960 1 1.65865 9.12384 10.0894 0 0 0
2730 1 0.952756 8.21076 10.0233 0 0 0
7623 2 0.319772 9.03812 10.2615 0 0 0
22798 2 0.141579 9.30559 9.41746 0 0 0
12160 1 3.47747 7.85469 10.2489 0 0 0
13896 2 3.41555 9.41459 10.0117 0 0 0
30672 2 2.83801 7.88293 8.88369 0 0 0
14004 1 2.13124 9.47382 9.09293 0 0 0
27704 1 3.08292 8.82549 9.09575 0 0 0
24039 1 2.68035 8.6604 10.1275 0 0 0
2560 2 3.64009 9.64192 9.09773 0 0 0
23963 2 0.0244004 11.0795 9.57518 0 0 0
10561 1 0.927383 9.76784 8.91366 0 0 0
4009 2 0.761783 11.007 10.1594 0 0 0
11247 2 1.32825 11.4196 9.48221 0 0 0
14844 2 0.822323 10.6645 9.33175 0 0 0
20099 1 0.832442 9.88151 10.035 0 0 0
3759 1 1.93918 10.6207 9.32166 0 0 0
888 2 2.23543 11.5824 9.06134 0 0 0
17656 2 3.12425 11.5294 8.73262 0 0 0
21567 2 2.9024 10.23 9.09901 0 0 0
30244 2 3.38404 10.3528 10.2073 0 0 0
11306 2 2.60716 9.82568 9.93098 0 0 0
6886 2 3.78034 10.5575 9.2143 0 0 0
7377 1 2.95549 11.1189 9.6374 0 0 0
14967 1 1.16764 12.0673 1.07064 0 0 0
35280 1 1.74088 13.0731 0.678693 0 0 0
23055 2 0.776481 13.4144 0.558506 0 0 0
9733 2 0.378325 12.5927 0.503255 0 0 0
15105 2 0.882443 13.2444 1.53224 0 0 0
22333 1 0.249159 12.3815 1.60632 0 0 0
24386 2 0.028857 13.2231 1.07577 0 0 0
31201 1 3.57566 11.8206 1.56811 0 0 0
6133 1 2.73786 12.5417 0.496369 0 0 0
27920 2 2.73243 12.6545 1.58421 0 0 0
33855 1 3.6803 12.8156 1.07102 0 0 0
6189 1 2.43197 11.7416 1.25136 0 0 0
28879 2 1.65485 14.5508 0.104965 0 0 0
3874 2 1.28892 15.3391 0.409545 0 0 0
10131 2 1.77103 14.0855 0.864502 0 0 0
1860 1 0.750995 14.4926 0.665755 0 0 0
33215 2 1.16486 15.187 1.29796 0 0 0
5771 1 0.201725 14.0816 1.6894 0 0 0
5186 2 0.0193844 15.1991 0.758482 0 0 0
33697 2 2.60421 13.6709 0.681113 0 0 0
871 1 3.03774 13.6597 1.5655 0 0 0
9413 1 3.74131 15.1158 1.60417 0 0 0
1293 1 2.15058 15.0454 0.86697 0 0 0
8790 1 3.26093 14.8761 0.536617 0 0 0
30040 2 0.0947167 12.3932 3.05455 0 0 0
6966 1 0.653196 13.3034 2.64581 0 0 0
13923 1 1.07214 12.2256 2.96109 0 0 0
12800 1 1.86405 12.1865 2.10075 0 0 0
5957 1 1.9382 13.2471 1.80552 0 0 0
7176 2 0.440225 11.7172 2.34883 0 0 0
16773 1 2.64448 11.7315 2.83079 0 0 0
5685 2 2.37458 12.741 2.81401 0 0 0
21488 2 3.59964 12.0547 3.12058 0 0 0
2438 2 3.27054 12.4362 2.30377 0 0 0
14897 1 3.11725 13.3707 2.61782 0 0 0
23064 1 1.33195 14.3278 1.75517 0 0 0
10043 2 0.261402 14.2639 2.75434 0 0 0
16059 2 1.47807 15.0739 2.56334 0 0 0
14653 2 0.637768 14.9218 2.18518 0 0 0
24701 2 1.16811 14.1997 2.82768 0 0 0
23815 1 0.706326 15.0351 3.27367 0 0 0
29491 1 2.08522 15.0315 3.37611 0 0 0
9927 1 3.50288 14.5686 2.77565 0 0 0
30225 1 2.34582 14.8063 2.00115 0 0 0
4207 1 2.18159 13.9638 3.11623 0 0 0
26500 2 2.8822 15.3622 2.80913 0 0 0
21773 1 1.73449 13.0163 3.59247 0 0 0
31144 1 0.266375 13.1873 3.67185 0 0 0
17042 1 0.869111 12.4157 4.15326 0 0 0
28380 2 0.645211 13.3008 4.63921 0 0 0
29778 2 1.56344 13.3117 4.60656 0 0 0
5613 2 1.77013 12.3812 4.53789 0 0 0
29878 2 3.56717 13.5709 4.71098 0 0 0
29261 1 2.50402 12.946 4.86918 0 0 0
28665 1 3.52269 13.0256 3.58318 0 0 0
22565 1 2.54905 12.3309 3.87921 0 0 0
12625 1 0.378554 15.1872 4.90745 0 0 0
2020 2 0.454197 14.2001 4.64782 0 0 0
6187 1 1.22999 14.0275 3.95697 0 0 0
35301 2 1.37014 15.3271 4.66525 0 0 0
12908 1 1.88226 14.4043 4.82471 0 0 0
18395 1 2.77815 13.7057 4.09088 0 0 0
29809 2 3.40049 14.4206 3.74447 0 0 0
34497 1 2.73603 14.992 4.2828 0 0 0
34710 1 1.69258 12.4523 5.53755 0 0 0
8528 1 1.40917 12.2646 6.6486 0 0 0
18036 1 0.307345 12.5887 6.68449 0 0 0
19914 1 1.13792 13.4303 5.56728 0 0 0
2097 2 0.156178 11.8033 5.96864 0 0 0
2526 1 0.557787 12.3517 5.19929 0 0 0
24745 2 2.35362 12.5978 6.27682 0 0 0
22645 1 3.24458 12.1605 6.31813 0 0 0
13214 2 3.17183 13.1541 6.18889 0 0 0
8454 2 2.66163 12.0652 5.47002 0 0 0
30521 2 3.80438 13.5369 5.6075 0 0 0
7082 1 3.46754 12.5976 5.18575 0 0 0
8254 1 0.892835 13.6077 6.66417 0 0 0
28996 1 1.51018 15.1289 5.68909 0 0 0
20702 1 0.50907 14.9973 6.06729 0 0 0
22834 2 0.940199 14.3729 5.37979 0 0 0
380 2 1.89982 14.4209 6.30337 0 0 0
9193 2 0.151361 14.0823 5.98399 0 0 0
11967 1 2.36963 13.6196 5.75939 0 0 0
31828 2 2.53334 15.1829 6.55684 0 0 0
13970 2 2.52205 15.1038 5.6372 0 0 0
25225 1 3.34766 14.4131 5.37498 0 0 0
23107 2 2.81768 14.4142 6.2128 0 0 0
4561 1 3.8002 14.5295 6.42272 0 0 0
5693 2 3.4326 15.4404 5.47334 0 0 0
7810 2 0.98484 13.3164 7.63419 0 0 0
2256 1 1.602 12.5389 7.80692 0 0 0
26439 2 1.51364 13.3381 8.43036 0 0 0
497 1 0.756456 11.8774 7.5257 0 0 0
4282 1 0.0788872 12.8033 7.82534 0 0 0
8375 1 1.92464 13.253 6.98399 0 0 0
9797 2 2.81267 12.6979 7.08634 0 0 0
23284 1 2.69123 11.9057 7.75889 0 0 0
15611 2 2.34107 13.2948 7.98162 0 0 0
34271 1 2.97717 12.6331 8.56824 0 0 0
29107 2 3.65317 12.3843 7.25696 0 0 0
26919 1 3.70812 13.2703 7.75037 0 0 0
29620 2 0.845694 14.5863 6.98141 0 0 0
12678 2 1.33213 15.2989 8.04228 0 0 0
16746 1 0.893359 14.1405 8.26006 0 0 0
18040 2 1.7304 13.9673 7.75904 0 0 0
6000 1 1.79573 14.8622 7.22357 0 0 0
8462 2 1.77806 14.74 8.59773 0 0 0
26185 1 3.80413 15.3914 7.65253 0 0 0
31044 1 3.07536 13.8228 7.01034 0 0 0
6746 1 2.8542 14.831 7.52331 0 0 0
33596 1 2.57269 14.2094 8.38444 0 0 0
34190 2 3.76548 14.3418 7.59224 0 0 0
8087 1 3.61371 14.0773 8.60568 0 0 0
18486 2 0.12282 12.9301 10.0051 0 0 0
20358 1 0.930071 12.2069 9.01758 0 0 0
20192 2 1.44786 12.6094 10.0729 0 0 0
2194 1 0.605688 12.0188 10.0673 0 0 0
298 1 0.568091 13.28 8.82358 0 0 0
3366 1 0.996066 13.494 9.84201 0 0 0
11453 1 3.48026 11.8853 10.2439 0 0 0
31624 1 2.09726 11.8131 10.0606 0 0 0
20338 1 2.00366 12.5413 9.21347 0 0 0
8403 2 3.08201 13.4547 9.2466 0 0 0
32488 2 2.88143 12.1667 9.48291 0 0 0
24867 2 2.56801 12.9905 9.92003 0 0 0
13586 1 3.49056 13.4104 10.1949 0 0 0
33338 1 3.78446 12.6865 9.43299 0 0 0
20280 1 0.553354 15.3907 10.0474 0 0 0
32681 1 1.67484 15.1572 9.65775 0 0 0
32854 2 0.476191 14.3508 9.82302 0 0 0
8428 1 0.285659 14.9266 8.94553 0 0 0
23778 2 1.22781 14.3535 9.217 0 0 0
15665 1 2.60428 15.4068 8.73653 0 0 0
26777 2 2.45236 15.0514 10.2676 0 0 0
20855 1 2.08138 13.6617 9.26182 0 0 0
11009 2 3.44396 14.2691 9.59079 0 0 0
14381 2 2.60441 14.6018 9.45439 0 0 0
21847 2 2.029 13.7192 10.2831 0 0 0
18107 2 2.83278 14.1518 10.2856 0 0 0
35051 2 3.66555 15.1223 8.69438 0 0 0
1901 2 3.30004 15.1763 9.87326 0 0 0
14304 2 1.48917 16.429 1.19523 0 0 0
12827 1 0.453546 15.851 1.51496 0 0 0
9662 1 1.22603 16.3004 0.24944 0 0 0
20112 2 0.245179 17.2008 0.800737 0 0 0
19286 1 0.986498 17.421 0.164792 0 0 0
11133 1 0.104283 16.2078 0.533974 0 0 0
6891 1 0.803467 17.0929 1.60844 0 0 0
21141 2 2.2219 16.8813 0.969008 0 0 0
2107 2 3.12254 16.9469 0.605532 0 0 0
3261 1 2.69648 16.0347 0.695568 0 0 0
26191 2 3.44403 16.904 1.4995 0 0 0
1629 1 3.6764 15.892 0.218436 0 0 0
12346 2 1.5607 17.5374 1.04067 0 0 0
12804 2 0.631134 18.2517 1.46491 0 0 0
14110 1 1.65748 18.5133 1.2963 0 0 0
3229 2 1.25931 18.8439 0.393534 0 0 0
20034 2 0.497102 18.2838 0.519931 0 0 0
27845 2 0.31345 19.1378 1.43108 0 0 0
22549 2 0.457024 19.2421 0.519658 0 0 0
16820 1 2.42974 17.7047 0.418702 0 0 0
7970 2 2.34388 18.7373 0.542783 0 0 0
10492 1 3.11019 17.878 1.26665 0 0 0
34470 1 3.24935 18.9817 0.992117 0 0 0
5243 2 3.59794 18.1019 0.394032 0 0 0
22226 2 2.25993 19.3834 1.17262 0 0 0
30455 2 1.50496 16.8289 2.26889 0 0 0
5892 2 1.38795 16.461 3.10622 0 0 0
35518 1 0.380713 16.7739 3.00683 0 0 0
15721 1 0.798226 15.8618 2.548 0 0 0
19698 1 1.79436 15.8954 2.02362 0 0 0
13786 1 1.7924 17.3699 3.09382 0 0 0
22308 1 3.07526 15.9914 1.73352 0 0 0
32667 1 2.5393 17.062 1.9549 0 0 0
25058 2 2.65185 16.7625 2.94706 0 0 0
27461 1 3.48112 16.1764 2.79123 0 0 0
12661 2 2.18212 15.9602 2.95533 0 0 0
13866 2 0.984276 17.5692 2.50169 0 0 0
20195 2 1.75361 17.6712 1.95086 0 0 0
19498 2 1.22229 18.4108 2.22811 0 0 0
23867 2 0.660704 19.1601 2.35843 0 0 0
1488 2 1.43001 18.3437 3.26482 0 0 0
9577 2 3.38837 17.5226 3.13658 0 0 0
18918 1 1.95241 19.0311 2.57434 0 0 0
6486 2 2.50801 18.4653 1.81677 0 0 0
9334 2 2.27657 18.0787 2.61381 0 0 0
10637 2 3.14211 17.9286 2.33999 0 0 0
18655 2 2.65224 18.6471 3.2671 0 0 0
19742 1 3.59076 18.7621 2.81029 0 0 0
18593 1 2.88126 19.366 1.96035 0 0 0
31353 2 1.02132 17.1503 3.7051 0 0 0
11259 2 0.352806 16.0105 3.79106 0 0 0
9838 1 1.14425 16.7068 4.58534 0 0 0
19086 1 1.62801 15.9335 3.89134 0 0 0
15857 2 1.87031 17.2678 4.11532 0 0 0
2831 1 0.124487 16.2739 4.81647 0 0 0
10697 2 2.13557 16.9727 4.90633 0 0 0
15120 2 3.70578 16.7615 3.75437 0 0 0
25935 1 2.56886 16.5289 3.96865 0 0 0
28944 2 2.30858 15.8026 4.70393 0 0 0
5152 2 3.17538 15.7049 3.67317 0 0 0
14257 1 3.0232 16.4602 5.02855 0 0 0
20807 1 0.616311 19.2904 3.50197 0 0 0
30286 1 0.667468 18.0795 4.18932 0 0 0
27588 1 1.81031 19.2005 3.70635 0 0 0
14219 1 1.73398 18.3132 4.36974 0 0 0
12208 2 1.02398 19.0649 4.39474 0 0 0
18820 1 0.46598 18.6061 5.11347 0 0 0
24560 2 3.13875 18.7457 4.19967 0 0 0
17914 1 2.757 17.849 3.89469 0 0 0
18193 2 3.7815 18.2057 3.6417 0 0 0
16008 1 1.04454 16.7693 6.14414 0 0 0
31919 1 1.70091 15.8467 6.70203 0 0 0
18397 2 0.653095 15.8628 6.55026 0 0 0
5526 1 1.65514 16.1862 5.38332 0 0 0
29650 2 0.695787 15.8985 5.62827 0 0 0
31549 2 1.9977 17.0979 5.8075 0 0 0
25148 2 2.4992 16.2803 5.93761 0 0 0
6332 1 2.83528 17.1364 6.33941 0 0 0
7967 1 3.49329 15.5938 6.58908 0 0 0
28851 2 1.17295 17.6756 6.74423 0 0 0
180 2 1.04689 18.3537 5.92644 0 0 0
4396 1 0.458468 18.9964 6.5183 0 0 0
14876 2 1.85907 17.7882 5.24294 0 0 0
3202 1 1.72218 19.1371 6.18747 0 0 0
11282 1 0.183859 17.925 6.48954 0 0 0
4524 1 0.870991 17.5937 5.21694 0 0 0
25787 2 1.39829 18.9448 5.21409 0 0 0
18746 1 1.94251 18.0482 6.26952 0 0 0
18176 2 2.94359 18.1475 6.10563 0 0 0
28812 2 3.11594 19.0392 6.03715 0 0 0
6234 2 2.6544 19.1076 6.82056 0 0 0
20448 1 2.36226 18.6956 5.3734 0 0 0
17391 1 2.87385 17.5731 5.26376 0 0 0
26709 2 3.30546 17.8715 6.88791 0 0 0
3536 1 0.144874 17.2142 7.92267 0 0 0
28056 1 0.519863 15.7392 7.55768 0 0 0
3709 2 1.32493 16.319 7.55288 0 0 0
2423 2 0.56385 16.6333 7.08684 0 0 0
32774 2 1.03272 16.9135 8.41909 0 0 0
30785 2 1.09464 17.2092 7.55005 0 0 0
4773 1 1.78078 16.1938 8.43533 0 0 0
15171 1 0.26071 16.274 8.56236 0 0 0
34713 1 2.07321 17.1489 7.24197 0 0 0
12706 2 2.80017 16.1305 7.26913 0 0 0
33441 2 3.54292 17.0059 7.09962 0 0 0
10468 2 2.3836 16.9668 8.21504 0 0 0
9772 1 3.39489 16.4971 8.00065 0 0 0
18208 2 2.97695 17.4055 7.67815 0 0 0
24175 2 2.22731 15.6102 7.76778 0 0 0
5121 1 1.65259 17.7396 8.18929 0 0 0
8614 2 1.4144 18.5463 7.0637 0 0 0
6003 2 1.09471 18.9979 8.13785 0 0 0
23503 1 0.669717 18.1302 7.55017 0 0 0
9100 2 0.596321 17.8413 8.59109 0 0 0
11666 1 2.11146 19.3315 8.04027 0 0 0
34985 1 3.06679 18.1734 8.33944 0 0 0
18016 1 2.40959 18.2354 7.34821 0 0 0
3496 1 3.59252 18.8081 7.33144 0 0 0
281 2 0.0409519 17.0634 10.2478 0 0 0
25030 2 1.05562 15.6687 8.9007 0 0 0
21190 2 0.966388 16.2672 9.64612 0 0 0
23393 1 0.640518 17.1903 9.41703 0 0 0
22035 2 1.79322 16.6057 9.3586 0 0 0
539 2 1.91516 17.0083 10.2094 0 0 0
23481 1 2.19497 16.0218 10.0853 0 0 0
33402 2 2.81557 17.0419 10.0933 0 0 0
24033 2 2.65881 16.9853 9.14934 0 0 0
8146 1 3.18935 16.1682 9.58808 0 0 0
31206 1 3.81633 17.0094 10.2082 0 0 0
32289 2 0.577671 18.2566 9.95323 0 0 0
17653 2 1.78934 17.5219 9.41081 0 0 0
2657 1 0.953427 18.7491 9.14321 0 0 0
28535 2 1.68422 18.1045 10.1835 0 0 0
18215 2 0.827387 19.2188 10.021 0 0 0
33044 1 1.92725 19.0948 10.0035 0 0 0
27635 1 3.54491 19.042 8.84761 0 0 0
3077 2 2.26233 18.8809 8.95336 0 0 0
18538 1 3.11596 18.0927 9.88427 0 0 0
1702 1 3.03858 19.1819 10.2759 0 0 0
18776 2 1.87839 20.7564 0.931999 0 0 0
26151 1 0.949145 21.0575 0.504988 0 0 0
35217 2 0.423885 20.1502 0.668189 0 0 0
33644 1 1.9011 19.917 0.403029 0 0 0
8568 1 0.912475 20.5925 1.51591 0 0 0
19829 1 1.24722 19.5501 1.21968 0 0 0
2709 2 0.0246429 20.0792 1.58958 0 0 0
11895 2 2.93927 20.0891 0.358027 0 0 0
2901 2 2.81742 21.0249 0.636725 0 0 0
7575 1 2.70541 20.3136 1.34945 0 0 0
16499 2 2.8171 21.3162 1.58395 0 0 0
35076 1 3.83501 21.1997 0.388617 0 0 0
22479 2 3.8784 20.1568 0.377579 0 0 0
25438 2 0.29014 23.0964 0.611808 0 0 0
5076 1 1.65535 22.5383 0.233598 0 0 0
13835 1 0.912675 22.116 0.957679 0 0 0
17182 2 0.854864 22.9403 1.56532 0 0 0
16887 1 1.87333 21.991 1.69752 0 0 0
9171 1 1.96069 21.4708 0.212205 0 0 0
21928 2 3.48413 22.7214 0.402095 0 0 0
6916 2 2.15428 22.826 1.0706 0 0 0
34917 2 2.52487 21.9463 0.902287 0 0 0
24206 1 3.42398 22.1324 1.25931 0 0 0
28881 1 3.0787 23.2268 1.2202 0 0 0
33395 1 2.5998 23.1509 0.0970529 0 0 0
28357 1 0.265476 20.7763 2.88706 0 0 0
12321 1 1.70766 20.2405 2.8745 0 0 0
23132 2 1.2996 21.2252 2.86611 0 0 0
26726 2 0.775851 20.0637 2.39235 0 0 0
16448 1 1.95313 20.8737 1.95187 0 0 0
19438 2 1.94961 19.8243 1.90386 0 0 0
20223 2 2.59222 20.7103 2.78466 0 0 0
2043 2 2.64255 19.7963 2.82885 0 0 0
10139 2 3.18323 20.2597 2.25859 0 0 0
15633 1 3.46187 21.1826 2.60917 0 0 0
21212 2 3.82817 20.2324 2.91802 0 0 0
35194 1 0.342399 21.4847 1.96537 0 0 0
31317 2 1.13545 22.0014 2.40199 0 0 0
19611 2 1.71122 23.0193 1.89009 0 0 0
8257 1 0.784763 22.5017 3.2429 0 0 0
25245 1 0.223213 22.5742 2.29674 0 0 0
14774 2 1.02887 23.1946 2.46366 0 0 0
27232 1 1.83712 22.731 2.86948 0 0 0
16437 2 2.54723 23.2726 2.11318 0 0 0
9437 2 2.07072 21.7082 3.27761 0 0 0
18441 2 2.76286 22.3464 2.15404 0 0 0
23649 2 2.48502 21.5503 2.48857 0 0 0
21764 1 2.97247 22.8255 3.35743 0 0 0
31070 1 3.87773 22.7306 2.50188 0 0 0
27780 1 0.400022 19.8622 4.5249 0 0 0
21263 1 1.58251 19.8535 4.69801 0 0 0
24444 2 0.835863 20.2757 3.68989 0 0 0
22642 2 1.11187 21.1047 4.09561 0 0 0
29393 1 0.0245564 21.3306 4.303 0 0 0
3841 1 0.984685 20.8066 5.0801 0 0 0
15903 2 3.31793 20.7493 3.47465 0 0 0
573 2 2.02759 20.7654 5.10165 0 0 0
22125 2 3.8295 20.4483 4.17689 0 0 0
17677 1 2.37874 20.8421 3.77302 0 0 0
26609 1 3.27126 19.7417 3.6125 0 0 0
32686 1 3.06596 20.9605 4.82949 0 0 0
2914 1 2.77439 19.902 4.98825 0 0 0
23065 2 3.75249 19.6761 4.80024 0 0 0
10856 2 0.620281 21.5464 3.45175 0 0 0
27698 1 1.55073 22.0688 4.10569 0 0 0
17979 2 0.371111 22.3721 4.24279 0 0 0
18134 1 1.90022 23.151 4.15873 0 0 0
20574 1 3.10929 21.7221 3.58217 0 0 0
17463 2 2.28276 21.5748 4.62657 0 0 0
26792 1 3.64081 21.8603 4.53413 0 0 0
10403 2 2.55964 22.3683 4.23513 0 0 0
14039 1 3.09204 22.758 4.96539 0 0 0
11132 2 2.02499 22.8473 5.09623 0 0 0
28685 2 1.18467 19.7908 5.58857 0 0 0
18092 1 1.01712 20.6006 6.21939 0 0 0
2004 1 0.179069 19.5619 5.57776 0 0 0
5722 2 0.137821 20.6549 5.72393 0 0 0
4983 1 2.0374 20.9802 6.08336 0 0 0
22012 1 3.32864 20.0453 6.01657 0 0 0
4886 2 2.11695 19.9929 5.73253 0 0 0
7522 2 3.00864 21.0933 5.87537 0 0 0
9699 2 3.03111 21.2548 6.79875 0 0 0
1653 2 3.76783 20.7083 6.85781 0 0 0
12319 2 3.86203 20.8429 5.55751 0 0 0
30376 1 0.858191 21.9063 5.18827 0 0 0
22799 2 1.16218 21.6607 6.19085 0 0 0
28141 2 1.51445 22.5545 6.27749 0 0 0